 ion    1
    1     2.51967     0.00000    -0.00000
    2     0.00000     2.51967    -0.00000
    3    -0.00000    -0.00000     2.57854
 ion    2
    1     2.51967     0.00000    -0.00000
    2     0.00000     2.51967    -0.00000
    3    -0.00000    -0.00000     2.57854
 ion    3
    1     7.27546     0.31498    -0.00000
    2    -0.31498     7.27546    -0.00000
    3    -0.00000    -0.00000     7.27743
 ion    4
    1     7.27546    -0.31498    -0.00000
    2     0.31498     7.27546    -0.00000
    3    -0.00000    -0.00000     7.27743
 ion    5
    1    -2.02646    -0.00000     0.00000
    2    -0.00000    -2.02646     0.00000
    3     0.00000     0.00000    -5.73805
 ion    6
    1    -2.02646    -0.00000     0.00000
    2    -0.00000    -2.02646     0.00000
    3     0.00000     0.00000    -5.73805
 ion    7
    1    -3.88433     1.85655     0.00000
    2     1.85655    -3.88433     0.00000
    3     0.00000     0.00000    -2.05896
 ion    8
    1    -3.88433     1.85655     0.00000
    2     1.85655    -3.88433     0.00000
    3     0.00000     0.00000    -2.05896
 ion    9
    1    -3.88433    -1.85655     0.00000
    2    -1.85655    -3.88433     0.00000
    3     0.00000     0.00000    -2.05896
 ion   10
    1    -3.88433    -1.85655     0.00000
    2    -1.85655    -3.88433     0.00000
    3     0.00000     0.00000    -2.05896
