 ion    1
    1     2.51756     0.00000    -0.00000
    2     0.00000     2.51756    -0.00000
    3    -0.00000    -0.00000     2.58361
 ion    2
    1     2.51756     0.00000    -0.00000
    2     0.00000     2.51756    -0.00000
    3    -0.00000    -0.00000     2.58361
 ion    3
    1     7.26713     0.33010    -0.00000
    2    -0.33010     7.26713    -0.00000
    3    -0.00000    -0.00000     7.26537
 ion    4
    1     7.26713    -0.33010    -0.00000
    2     0.33010     7.26713    -0.00000
    3    -0.00000    -0.00000     7.26537
 ion    5
    1    -2.02826    -0.00000     0.00000
    2    -0.00000    -2.02826     0.00000
    3     0.00000     0.00000    -5.72021
 ion    6
    1    -2.02826    -0.00000     0.00000
    2    -0.00000    -2.02826     0.00000
    3     0.00000     0.00000    -5.72021
 ion    7
    1    -3.87822     1.84875     0.00000
    2     1.84875    -3.87822     0.00000
    3     0.00000     0.00000    -2.06438
 ion    8
    1    -3.87822     1.84875     0.00000
    2     1.84875    -3.87822     0.00000
    3     0.00000     0.00000    -2.06438
 ion    9
    1    -3.87822    -1.84875     0.00000
    2    -1.84875    -3.87822     0.00000
    3     0.00000     0.00000    -2.06438
 ion   10
    1    -3.87822    -1.84875     0.00000
    2    -1.84875    -3.87822     0.00000
    3     0.00000     0.00000    -2.06438
