 ion    1
    1     2.51630     0.00000    -0.00000
    2     0.00000     2.51630    -0.00000
    3    -0.00000    -0.00000     2.58942
 ion    2
    1     2.51630     0.00000    -0.00000
    2     0.00000     2.51630    -0.00000
    3    -0.00000    -0.00000     2.58942
 ion    3
    1     7.26019     0.34134    -0.00000
    2    -0.34134     7.26019    -0.00000
    3    -0.00000    -0.00000     7.25464
 ion    4
    1     7.26019    -0.34134    -0.00000
    2     0.34134     7.26019    -0.00000
    3    -0.00000    -0.00000     7.25464
 ion    5
    1    -2.03040    -0.00000     0.00000
    2    -0.00000    -2.03040     0.00000
    3     0.00000     0.00000    -5.70474
 ion    6
    1    -2.03040    -0.00000     0.00000
    2    -0.00000    -2.03040     0.00000
    3     0.00000     0.00000    -5.70474
 ion    7
    1    -3.87304     1.84194     0.00000
    2     1.84194    -3.87304     0.00000
    3     0.00000     0.00000    -2.06966
 ion    8
    1    -3.87304     1.84194     0.00000
    2     1.84194    -3.87304     0.00000
    3     0.00000     0.00000    -2.06966
 ion    9
    1    -3.87304    -1.84194     0.00000
    2    -1.84194    -3.87304     0.00000
    3     0.00000     0.00000    -2.06966
 ion   10
    1    -3.87304    -1.84194     0.00000
    2    -1.84194    -3.87304     0.00000
    3     0.00000     0.00000    -2.06966
