 ion    1
    1     2.52027     0.00000    -0.00000
    2     0.00000     2.52027    -0.00000
    3    -0.00000    -0.00000     2.57478
 ion    2
    1     2.52027     0.00000    -0.00000
    2     0.00000     2.52027    -0.00000
    3    -0.00000    -0.00000     2.57478
 ion    3
    1     7.28018     0.30690    -0.00000
    2    -0.30690     7.28018    -0.00000
    3    -0.00000    -0.00000     7.28346
 ion    4
    1     7.28018    -0.30690    -0.00000
    2     0.30690     7.28018    -0.00000
    3    -0.00000    -0.00000     7.28346
 ion    5
    1    -2.02550    -0.00000     0.00000
    2    -0.00000    -2.02550     0.00000
    3     0.00000     0.00000    -5.74634
 ion    6
    1    -2.02550    -0.00000     0.00000
    2    -0.00000    -2.02550     0.00000
    3     0.00000     0.00000    -5.74634
 ion    7
    1    -3.88748     1.86043     0.00000
    2     1.86043    -3.88748     0.00000
    3     0.00000     0.00000    -2.05595
 ion    8
    1    -3.88748     1.86043     0.00000
    2     1.86043    -3.88748     0.00000
    3     0.00000     0.00000    -2.05595
 ion    9
    1    -3.88748    -1.86043     0.00000
    2    -1.86043    -3.88748     0.00000
    3     0.00000     0.00000    -2.05595
 ion   10
    1    -3.88748    -1.86043     0.00000
    2    -1.86043    -3.88748     0.00000
    3     0.00000     0.00000    -2.05595
