 ion    1
    1     2.52688     0.00000    -0.00000
    2     0.00000     2.52688    -0.00000
    3    -0.00000    -0.00000     2.57452
 ion    2
    1     2.52688     0.00000    -0.00000
    2     0.00000     2.52688    -0.00000
    3    -0.00000    -0.00000     2.57452
 ion    3
    1     7.28777     0.29727    -0.00000
    2    -0.29727     7.28777    -0.00000
    3    -0.00000    -0.00000     7.28907
 ion    4
    1     7.28777    -0.29727    -0.00000
    2     0.29727     7.28777    -0.00000
    3    -0.00000    -0.00000     7.28907
 ion    5
    1    -2.02646    -0.00000     0.00000
    2    -0.00000    -2.02646     0.00000
    3     0.00000     0.00000    -5.75763
 ion    6
    1    -2.02646    -0.00000     0.00000
    2    -0.00000    -2.02646     0.00000
    3     0.00000     0.00000    -5.75763
 ion    7
    1    -3.89410     1.86623     0.00000
    2     1.86623    -3.89410     0.00000
    3     0.00000     0.00000    -2.05298
 ion    8
    1    -3.89410     1.86623     0.00000
    2     1.86623    -3.89410     0.00000
    3     0.00000     0.00000    -2.05298
 ion    9
    1    -3.89410    -1.86623     0.00000
    2    -1.86623    -3.89410     0.00000
    3     0.00000     0.00000    -2.05298
 ion   10
    1    -3.89410    -1.86623     0.00000
    2    -1.86623    -3.89410     0.00000
    3     0.00000     0.00000    -2.05298
