 ion    1
    1     2.51730     0.00000    -0.00000
    2     0.00000     2.51730    -0.00000
    3    -0.00000    -0.00000     2.59745
 ion    2
    1     2.51730     0.00000    -0.00000
    2     0.00000     2.51730    -0.00000
    3    -0.00000    -0.00000     2.59745
 ion    3
    1     7.25335     0.35236    -0.00000
    2    -0.35236     7.25335    -0.00000
    3    -0.00000    -0.00000     7.24331
 ion    4
    1     7.25335    -0.35236    -0.00000
    2     0.35236     7.25335    -0.00000
    3    -0.00000    -0.00000     7.24331
 ion    5
    1    -2.03342    -0.00000     0.00000
    2    -0.00000    -2.03342     0.00000
    3     0.00000     0.00000    -5.68958
 ion    6
    1    -2.03342    -0.00000     0.00000
    2    -0.00000    -2.03342     0.00000
    3     0.00000     0.00000    -5.68958
 ion    7
    1    -3.86861     1.83521     0.00000
    2     1.83521    -3.86861     0.00000
    3     0.00000     0.00000    -2.07559
 ion    8
    1    -3.86861     1.83521     0.00000
    2     1.83521    -3.86861     0.00000
    3     0.00000     0.00000    -2.07559
 ion    9
    1    -3.86861    -1.83521     0.00000
    2    -1.83521    -3.86861     0.00000
    3     0.00000     0.00000    -2.07559
 ion   10
    1    -3.86861    -1.83521     0.00000
    2    -1.83521    -3.86861     0.00000
    3     0.00000     0.00000    -2.07559
